
     Program PWSCF v.6.7MaX starts on 13Nov2025 at 11:46:13 

     This program is part of the open-source Quantum ESPRESSO suite
     for quantum simulation of materials; please cite
         "P. Giannozzi et al., J. Phys.:Condens. Matter 21 395502 (2009);
         "P. Giannozzi et al., J. Phys.:Condens. Matter 29 465901 (2017);
          URL http://www.quantum-espresso.org", 
     in publications or presentations arising from this work. More details at
     http://www.quantum-espresso.org/quote

     Parallel version (MPI), running on     1 processors

     MPI processes distributed on     1 nodes
     Waiting for input...
     Reading input from standard input
Warning: card &CELL ignored
Warning: card / ignored

     Current dimensions of program PWSCF are:
     Max number of different atomic species (ntypx) = 10
     Max number of k-points (npk) =  40000
     Max angular momentum in pseudopotentials (lmaxx) =  3

     Subspace diagonalization in iterative solution of the eigenvalue problem:
     a serial algorithm will be used

     Found symmetry operation: I + ( -0.5000 -0.5000 -0.5000)
     This is a supercell, fractional translations are disabled
     Message from routine setup:
     using ibrav=0 with symmetry is DISCOURAGED, use correct ibrav instead

     G-vector sticks info
     --------------------
     sticks:   dense  smooth     PW     G-vecs:    dense   smooth      PW
     Sum         697     697    221                13949    13949    2469



     bravais-lattice index     =            0
     lattice parameter (alat)  =       6.6329  a.u.
     unit-cell volume          =     291.8219 (a.u.)^3
     number of atoms/cell      =            2
     number of atomic types    =            1
     number of electrons       =         6.00
     number of Kohn-Sham states=            7
     kinetic-energy cutoff     =      50.0000  Ry
     charge density cutoff     =     200.0000  Ry
     scf convergence threshold =      1.0E-06
     mixing beta               =       0.3000
     number of iterations used =            8  plain     mixing
     Exchange-correlation=  SLA  PW   PBX  PBC
                           (   1   4   3   4   0   0   0)

     celldm(1)=   6.632939  celldm(2)=   0.000000  celldm(3)=   0.000000
     celldm(4)=   0.000000  celldm(5)=   0.000000  celldm(6)=   0.000000

     crystal axes: (cart. coord. in units of alat)
               a(1) = (   1.000000   0.000000   0.000000 )  
               a(2) = (   0.000000   1.000000   0.000000 )  
               a(3) = (   0.000000   0.000000   1.000000 )  

     reciprocal axes: (cart. coord. in units 2 pi/alat)
               b(1) = (  1.000000  0.000000  0.000000 )  
               b(2) = (  0.000000  1.000000  0.000000 )  
               b(3) = (  0.000000  0.000000  1.000000 )  


     PseudoPot. # 1 for Li read from file:
     /content/drive/MyDrive/MSMSE III SEM/Project/pseudo/li_pbe_v1.4.uspp.F.UPF
     MD5 check sum: e912e257baa3777c20ea3d68f190483c
     Pseudo is Ultrasoft, Zval =  3.0
     Generated by new atomic code, or converted to UPF format
     Using radial grid of  751 points,  5 beta functions with: 
                l(1) =   0
                l(2) =   0
                l(3) =   0
                l(4) =   1
                l(5) =   1
     Q(r) pseudized with 10 coefficients,  rinner =    1.150   1.150   1.150


     atomic species   valence    mass     pseudopotential
        Li             3.00     6.94100     Li( 1.00)

     48 Sym. Ops., with inversion, found



   Cartesian axes

     site n.     atom                  positions (alat units)
         1           Li  tau(   1) = (   0.0000000   0.0000000   0.0000000  )
         2           Li  tau(   2) = (   0.5000000   0.5000000   0.5000000  )

     number of k points=    10  Gaussian smearing, width (Ry)=  0.0200
                       cart. coord. in units 2pi/alat
        k(    1) = (   0.0000000   0.0000000   0.0000000), wk =   0.0312500
        k(    2) = (   0.0000000   0.0000000   0.2500000), wk =   0.1875000
        k(    3) = (   0.0000000   0.0000000  -0.5000000), wk =   0.0937500
        k(    4) = (   0.0000000   0.2500000   0.2500000), wk =   0.3750000
        k(    5) = (   0.0000000   0.2500000  -0.5000000), wk =   0.3750000
        k(    6) = (   0.0000000  -0.5000000  -0.5000000), wk =   0.0937500
        k(    7) = (   0.2500000   0.2500000   0.2500000), wk =   0.2500000
        k(    8) = (   0.2500000   0.2500000  -0.5000000), wk =   0.3750000
        k(    9) = (   0.2500000  -0.5000000  -0.5000000), wk =   0.1875000
        k(   10) = (  -0.5000000  -0.5000000  -0.5000000), wk =   0.0312500

     Dense  grid:    13949 G-vectors     FFT dimensions: (  30,  30,  30)

     Estimated max dynamical RAM per process >      22.16 MB

     Initial potential from superposition of free atoms

     starting charge    5.09851, renormalised to    6.00000
     Starting wfcs are   10 randomized atomic wfcs

     total cpu time spent up to now is        0.8 secs

     Self-consistent Calculation

     iteration #  1     ecut=    50.00 Ry     beta= 0.30
     Davidson diagonalization with overlap
     ethr =  1.00E-02,  avg # of iterations =  3.2

     total cpu time spent up to now is        1.4 secs

     total energy              =     -29.03240688 Ry
     estimated scf accuracy    <       0.32860463 Ry

     iteration #  2     ecut=    50.00 Ry     beta= 0.30
     Davidson diagonalization with overlap
     ethr =  5.48E-03,  avg # of iterations =  1.0

     total cpu time spent up to now is        1.9 secs

     total energy              =     -28.92765499 Ry
     estimated scf accuracy    <       0.14364897 Ry

     iteration #  3     ecut=    50.00 Ry     beta= 0.30
     Davidson diagonalization with overlap
     ethr =  2.39E-03,  avg # of iterations =  1.1

     total cpu time spent up to now is        2.4 secs

     total energy              =     -28.93794294 Ry
     estimated scf accuracy    <       0.00046488 Ry

     iteration #  4     ecut=    50.00 Ry     beta= 0.30
     Davidson diagonalization with overlap
     ethr =  7.75E-06,  avg # of iterations =  6.7

     total cpu time spent up to now is        3.4 secs

     total energy              =     -28.94219565 Ry
     estimated scf accuracy    <       0.00022451 Ry

     iteration #  5     ecut=    50.00 Ry     beta= 0.30
     Davidson diagonalization with overlap
     ethr =  3.74E-06,  avg # of iterations =  1.3

     total cpu time spent up to now is        3.9 secs

     total energy              =     -28.94203551 Ry
     estimated scf accuracy    <       0.00041591 Ry

     iteration #  6     ecut=    50.00 Ry     beta= 0.30
     Davidson diagonalization with overlap
     ethr =  3.74E-06,  avg # of iterations =  1.0

     total cpu time spent up to now is        4.4 secs

     total energy              =     -28.94199243 Ry
     estimated scf accuracy    <       0.00008259 Ry

     iteration #  7     ecut=    50.00 Ry     beta= 0.30
     Davidson diagonalization with overlap
     ethr =  1.38E-06,  avg # of iterations =  1.0

     total cpu time spent up to now is        5.0 secs

     total energy              =     -28.94199814 Ry
     estimated scf accuracy    <       0.00000252 Ry

     iteration #  8     ecut=    50.00 Ry     beta= 0.30
     Davidson diagonalization with overlap
     ethr =  4.21E-08,  avg # of iterations =  4.0

     total cpu time spent up to now is        6.1 secs

     total energy              =     -28.94199947 Ry
     estimated scf accuracy    <       0.00000306 Ry

     iteration #  9     ecut=    50.00 Ry     beta= 0.30
     Davidson diagonalization with overlap
     ethr =  4.21E-08,  avg # of iterations =  1.0

     total cpu time spent up to now is        7.0 secs

     End of self-consistent calculation

          k = 0.0000 0.0000 0.0000 (  1743 PWs)   bands (ev):

   -45.8833 -45.8580  -2.7411   6.0403   6.0403   6.0403   8.2405

          k = 0.0000 0.0000 0.2500 (  1763 PWs)   bands (ev):

   -45.8791 -45.8612  -2.1601   2.6262   6.7704   6.7704   9.0030

          k = 0.0000 0.0000-0.5000 (  1750 PWs)   bands (ev):

   -45.8700 -45.8691  -0.3878  -0.3877   8.9270   8.9270   8.9271

          k = 0.0000 0.2500 0.2500 (  1759 PWs)   bands (ev):

   -45.8759 -45.8632  -1.5848   2.4892   4.4061   7.4881   9.0554

          k = 0.0000 0.2500-0.5000 (  1724 PWs)   bands (ev):

   -45.8695 -45.8685   0.1309   0.1309   5.8412   5.8412   9.5617

          k = 0.0000-0.5000-0.5000 (  1740 PWs)   bands (ev):

   -45.8689 -45.8679   1.0053   1.0053   3.7806   3.7806  10.6552

          k = 0.2500 0.2500 0.2500 (  1749 PWs)   bands (ev):

   -45.8735 -45.8645  -1.0046   3.2391   3.2391   6.4916   9.1565

          k = 0.2500 0.2500-0.5000 (  1728 PWs)   bands (ev):

   -45.8689 -45.8679   0.7079   0.7079   5.4796   5.4797   7.5848

          k = 0.2500-0.5000-0.5000 (  1748 PWs)   bands (ev):

   -45.8683 -45.8674   1.7578   1.7578   3.8866   3.8866   7.7262

          k =-0.5000-0.5000-0.5000 (  1736 PWs)   bands (ev):

   -45.8678 -45.8668   4.0092   4.0092   4.0092   4.0092   4.0092

     the Fermi energy is     0.6037 ev

!    total energy              =     -28.94199975 Ry
     estimated scf accuracy    <       0.00000059 Ry
     smearing contrib. (-TS)   =      -0.00398081 Ry
     internal energy E=F+TS    =     -28.93801894 Ry

     The total energy is F=E-TS. E is the sum of the following terms:
     one-electron contribution =     -19.74311144 Ry
     hartree contribution      =       7.41710765 Ry
     xc contribution           =      -6.73612072 Ry
     ewald contribution        =      -9.87589443 Ry

     convergence has been achieved in   9 iterations

     Writing output data file ./out/li_ref.save/

     init_run     :      0.47s CPU      0.68s WALL (       1 calls)
     electrons    :      6.06s CPU      6.46s WALL (       1 calls)

     Called by init_run:
     wfcinit      :      0.29s CPU      0.24s WALL (       1 calls)
     potinit      :      0.02s CPU      0.26s WALL (       1 calls)
     hinit0       :      0.15s CPU      0.15s WALL (       1 calls)

     Called by electrons:
     c_bands      :      4.52s CPU      4.62s WALL (       9 calls)
     sum_band     :      1.05s CPU      1.11s WALL (       9 calls)
     v_of_rho     :      0.31s CPU      0.32s WALL (      10 calls)
     newd         :      0.14s CPU      0.15s WALL (      10 calls)
     mix_rho      :      0.04s CPU      0.05s WALL (       9 calls)

     Called by c_bands:
     init_us_2    :      0.12s CPU      0.12s WALL (     190 calls)
     cegterg      :      4.26s CPU      4.32s WALL (      90 calls)

     Called by *egterg:
     cdiaghg      :      0.06s CPU      0.05s WALL (     293 calls)
     h_psi        :      4.10s CPU      4.17s WALL (     303 calls)
     s_psi        :      0.06s CPU      0.07s WALL (     303 calls)
     g_psi        :      0.03s CPU      0.02s WALL (     203 calls)

     Called by h_psi:
     h_psi:calbec :      0.08s CPU      0.16s WALL (     303 calls)
     vloc_psi     :      3.93s CPU      3.93s WALL (     303 calls)
     add_vuspsi   :      0.06s CPU      0.07s WALL (     303 calls)

     General routines
     calbec       :      0.11s CPU      0.23s WALL (     393 calls)
     fft          :      0.23s CPU      0.25s WALL (     109 calls)
     ffts         :      0.02s CPU      0.02s WALL (       9 calls)
     fftw         :      4.23s CPU      4.26s WALL (    4056 calls)

     Parallel routines

     PWSCF        :      6.65s CPU      9.33s WALL


   This run was terminated on:  11:46:23  13Nov2025            

=------------------------------------------------------------------------------=
   JOB DONE.
=------------------------------------------------------------------------------=

=== STDERR ===
