
     Program PWSCF v.6.7MaX starts on 13Nov2025 at 11:45:16 

     This program is part of the open-source Quantum ESPRESSO suite
     for quantum simulation of materials; please cite
         "P. Giannozzi et al., J. Phys.:Condens. Matter 21 395502 (2009);
         "P. Giannozzi et al., J. Phys.:Condens. Matter 29 465901 (2017);
          URL http://www.quantum-espresso.org", 
     in publications or presentations arising from this work. More details at
     http://www.quantum-espresso.org/quote

     Parallel version (MPI), running on     1 processors

     MPI processes distributed on     1 nodes
     Waiting for input...
     Reading input from standard input
Warning: card &CELL ignored
Warning: card / ignored

     Current dimensions of program PWSCF are:
     Max number of different atomic species (ntypx) = 10
     Max number of k-points (npk) =  40000
     Max angular momentum in pseudopotentials (lmaxx) =  3

     Subspace diagonalization in iterative solution of the eigenvalue problem:
     a serial algorithm will be used

     Message from routine setup:
     using ibrav=0 with symmetry is DISCOURAGED, use correct ibrav instead

     G-vector sticks info
     --------------------
     sticks:   dense  smooth     PW     G-vecs:    dense   smooth      PW
     Sum        1861    1861    517                59757    59757    9093



     bravais-lattice index     =            0
     lattice parameter (alat)  =      10.7714  a.u.
     unit-cell volume          =    1249.7443 (a.u.)^3
     number of atoms/cell      =            3
     number of atomic types    =            2
     number of electrons       =        12.00
     number of Kohn-Sham states=           10
     kinetic-energy cutoff     =      50.0000  Ry
     charge density cutoff     =     200.0000  Ry
     scf convergence threshold =      1.0E-06
     mixing beta               =       0.3000
     number of iterations used =            8  plain     mixing
     Exchange-correlation=  SLA  PW   PBX  PBC
                           (   1   4   3   4   0   0   0)

     celldm(1)=  10.771439  celldm(2)=   0.000000  celldm(3)=   0.000000
     celldm(4)=   0.000000  celldm(5)=   0.000000  celldm(6)=   0.000000

     crystal axes: (cart. coord. in units of alat)
               a(1) = (   1.000000   0.000000   0.000000 )  
               a(2) = (   0.000000   1.000000   0.000000 )  
               a(3) = (   0.000000   0.000000   1.000000 )  

     reciprocal axes: (cart. coord. in units 2 pi/alat)
               b(1) = (  1.000000  0.000000  0.000000 )  
               b(2) = (  0.000000  1.000000  0.000000 )  
               b(3) = (  0.000000  0.000000  1.000000 )  


     PseudoPot. # 1 for Li read from file:
     /content/drive/MyDrive/MSMSE III SEM/Project/pseudo/li_pbe_v1.4.uspp.F.UPF
     MD5 check sum: e912e257baa3777c20ea3d68f190483c
     Pseudo is Ultrasoft, Zval =  3.0
     Generated by new atomic code, or converted to UPF format
     Using radial grid of  751 points,  5 beta functions with: 
                l(1) =   0
                l(2) =   0
                l(3) =   0
                l(4) =   1
                l(5) =   1
     Q(r) pseudized with 10 coefficients,  rinner =    1.150   1.150   1.150


     PseudoPot. # 2 for S  read from file:
     /content/drive/MyDrive/MSMSE III SEM/Project/pseudo/s_pbe_v1.4.uspp.F.UPF
     MD5 check sum: 88d86576ff6df21479756cfb9bdac1df
     Pseudo is Ultrasoft + core correction, Zval =  6.0
     Generated by new atomic code, or converted to UPF format
     Using radial grid of  907 points,  6 beta functions with: 
                l(1) =   0
                l(2) =   0
                l(3) =   1
                l(4) =   1
                l(5) =   2
                l(6) =   2
     Q(r) pseudized with  8 coefficients,  rinner =    1.300   1.300   1.300
                                                       1.300   1.300

     atomic species   valence    mass     pseudopotential
        Li             3.00     6.94100     Li( 1.00)
        S              6.00    32.06500     S ( 1.00)

     12 Sym. Ops., with inversion, found



   Cartesian axes

     site n.     atom                  positions (alat units)
         1           Li  tau(   1) = (   0.2148960   0.2148960   0.2148960  )
         2           Li  tau(   2) = (   0.7851040   0.7851040   0.7851040  )
         3           S   tau(   3) = (   0.0000000   0.0000000   0.0000000  )

     number of k points=    13  Gaussian smearing, width (Ry)=  0.0200
                       cart. coord. in units 2pi/alat
        k(    1) = (   0.0000000   0.0000000   0.0000000), wk =   0.0312500
        k(    2) = (   0.0000000   0.0000000   0.2500000), wk =   0.1875000
        k(    3) = (   0.0000000   0.0000000  -0.5000000), wk =   0.0937500
        k(    4) = (   0.0000000   0.2500000   0.2500000), wk =   0.1875000
        k(    5) = (   0.0000000   0.2500000  -0.5000000), wk =   0.3750000
        k(    6) = (   0.0000000  -0.5000000  -0.5000000), wk =   0.0937500
        k(    7) = (   0.2500000   0.2500000   0.2500000), wk =   0.0625000
        k(    8) = (   0.2500000   0.2500000  -0.5000000), wk =   0.1875000
        k(    9) = (   0.2500000  -0.5000000  -0.5000000), wk =   0.1875000
        k(   10) = (  -0.5000000  -0.5000000  -0.5000000), wk =   0.0312500
        k(   11) = (   0.0000000   0.2500000  -0.2500000), wk =   0.1875000
        k(   12) = (  -0.2500000   0.2500000   0.2500000), wk =   0.1875000
        k(   13) = (  -0.2500000  -0.5000000   0.2500000), wk =   0.1875000

     Dense  grid:    59757 G-vectors     FFT dimensions: (  50,  50,  50)

     Estimated max dynamical RAM per process >     228.98 MB

     Initial potential from superposition of free atoms

     starting charge   11.09848, renormalised to   12.00000
     Starting wfcs are   14 randomized atomic wfcs

     total cpu time spent up to now is        3.5 secs

     Self-consistent Calculation

     iteration #  1     ecut=    50.00 Ry     beta= 0.30
     Davidson diagonalization with overlap
     ethr =  1.00E-02,  avg # of iterations =  2.0

     total cpu time spent up to now is        8.6 secs

     total energy              =     -53.09015097 Ry
     estimated scf accuracy    <       0.19191675 Ry

     iteration #  2     ecut=    50.00 Ry     beta= 0.30
     Davidson diagonalization with overlap
     ethr =  1.60E-03,  avg # of iterations =  2.0

     total cpu time spent up to now is       12.1 secs

     total energy              =     -53.08732239 Ry
     estimated scf accuracy    <       0.05880372 Ry

     iteration #  3     ecut=    50.00 Ry     beta= 0.30
     Davidson diagonalization with overlap
     ethr =  4.90E-04,  avg # of iterations =  2.3

     total cpu time spent up to now is       15.9 secs

     total energy              =     -53.08773861 Ry
     estimated scf accuracy    <       0.01769779 Ry

     iteration #  4     ecut=    50.00 Ry     beta= 0.30
     Davidson diagonalization with overlap
     ethr =  1.47E-04,  avg # of iterations =  2.2

     total cpu time spent up to now is       22.0 secs

     total energy              =     -53.09129631 Ry
     estimated scf accuracy    <       0.00731294 Ry

     iteration #  5     ecut=    50.00 Ry     beta= 0.30
     Davidson diagonalization with overlap
     ethr =  6.09E-05,  avg # of iterations =  1.2

     total cpu time spent up to now is       25.4 secs

     total energy              =     -53.09055429 Ry
     estimated scf accuracy    <       0.00258962 Ry

     iteration #  6     ecut=    50.00 Ry     beta= 0.30
     Davidson diagonalization with overlap
     ethr =  2.16E-05,  avg # of iterations =  4.2

     total cpu time spent up to now is       29.7 secs

     total energy              =     -53.09165165 Ry
     estimated scf accuracy    <       0.00023534 Ry

     iteration #  7     ecut=    50.00 Ry     beta= 0.30
     Davidson diagonalization with overlap
     ethr =  1.96E-06,  avg # of iterations =  6.5

     total cpu time spent up to now is       37.3 secs

     total energy              =     -53.09159959 Ry
     estimated scf accuracy    <       0.00100575 Ry

     iteration #  8     ecut=    50.00 Ry     beta= 0.30
     Davidson diagonalization with overlap
     ethr =  1.96E-06,  avg # of iterations =  1.1

     total cpu time spent up to now is       40.6 secs

     total energy              =     -53.09148011 Ry
     estimated scf accuracy    <       0.00047215 Ry

     iteration #  9     ecut=    50.00 Ry     beta= 0.30
     Davidson diagonalization with overlap
     ethr =  1.96E-06,  avg # of iterations =  2.0

     total cpu time spent up to now is       44.3 secs

     total energy              =     -53.09151338 Ry
     estimated scf accuracy    <       0.00006437 Ry

     iteration # 10     ecut=    50.00 Ry     beta= 0.30
     Davidson diagonalization with overlap
     ethr =  5.36E-07,  avg # of iterations =  2.4

     total cpu time spent up to now is       48.4 secs

     total energy              =     -53.09151644 Ry
     estimated scf accuracy    <       0.00001708 Ry

     iteration # 11     ecut=    50.00 Ry     beta= 0.30
     Davidson diagonalization with overlap
     ethr =  1.42E-07,  avg # of iterations =  2.6

     total cpu time spent up to now is       53.8 secs

     End of self-consistent calculation

          k = 0.0000 0.0000 0.0000 (  7441 PWs)   bands (ev):

   -48.6488 -48.6486 -11.9597  -3.1330  -2.1055  -2.1055  -0.8250   1.9999
     1.9999   2.6722

          k = 0.0000 0.0000 0.2500 (  7448 PWs)   bands (ev):

   -48.6488 -48.6486 -11.9558  -3.1763  -2.2937  -2.0866  -0.4051   1.5141
     2.2241   2.9546

          k = 0.0000 0.0000-0.5000 (  7464 PWs)   bands (ev):

   -48.6488 -48.6486 -11.9520  -3.2282  -2.4173  -2.0673   0.4644   0.4899
     2.6133   3.1810

          k = 0.0000 0.2500 0.2500 (  7443 PWs)   bands (ev):

   -48.6488 -48.6486 -11.9521  -3.2133  -2.3136  -2.1751  -0.1340   1.6488
     2.0822   2.8354

          k = 0.0000 0.2500-0.5000 (  7482 PWs)   bands (ev):

   -48.6488 -48.6486 -11.9483  -3.2460  -2.4455  -2.1495   0.5595   0.8939
     2.2472   2.7119

          k = 0.0000-0.5000-0.5000 (  7452 PWs)   bands (ev):

   -48.6488 -48.6486 -11.9445  -3.2720  -2.4980  -2.1688   0.7152   1.3618
     1.8750   2.1909

          k = 0.2500 0.2500 0.2500 (  7466 PWs)   bands (ev):

   -48.6488 -48.6486 -11.9484  -3.2460  -2.2828  -2.2828   0.0731   1.9491
     2.3981   2.3981

          k = 0.2500 0.2500-0.5000 (  7480 PWs)   bands (ev):

   -48.6488 -48.6486 -11.9446  -3.2666  -2.4320  -2.2431   0.7158   1.1755
     2.2092   2.8647

          k = 0.2500-0.5000-0.5000 (  7472 PWs)   bands (ev):

   -48.6488 -48.6486 -11.9409  -3.2855  -2.4512  -2.2970   0.9606   1.3920
     1.9548   2.2830

          k =-0.5000-0.5000-0.5000 (  7568 PWs)   bands (ev):

   -48.6488 -48.6486 -11.9373  -3.3042  -2.4016  -2.4016   1.3816   1.6873
     1.7249   1.7249

          k = 0.0000 0.2500-0.2500 (  7443 PWs)   bands (ev):

   -48.6488 -48.6486 -11.9520  -3.2005  -2.3901  -2.1424   0.0155   1.5678
     1.8154   3.2935

          k =-0.2500 0.2500 0.2500 (  7466 PWs)   bands (ev):

   -48.6488 -48.6486 -11.9483  -3.2262  -2.3584  -2.2751   0.2733   1.6227
     1.9787   2.7493

          k =-0.2500-0.5000 0.2500 (  7480 PWs)   bands (ev):

   -48.6488 -48.6486 -11.9446  -3.2587  -2.4135  -2.2852   0.6925   1.2265
     2.0294   2.6743

     the Fermi energy is    -1.3763 ev

!    total energy              =     -53.09152072 Ry
     estimated scf accuracy    <       0.00000041 Ry
     smearing contrib. (-TS)   =      -0.00000665 Ry
     internal energy E=F+TS    =     -53.09151407 Ry

     The total energy is F=E-TS. E is the sum of the following terms:
     one-electron contribution =     -43.76538344 Ry
     hartree contribution      =      20.68172322 Ry
     xc contribution           =     -15.18362527 Ry
     ewald contribution        =     -14.82422858 Ry

     convergence has been achieved in  11 iterations

     Writing output data file ./out/final_scf.save/

     init_run     :      2.40s CPU      3.23s WALL (       1 calls)
     electrons    :     48.88s CPU     50.59s WALL (       1 calls)

     Called by init_run:
     wfcinit      :      1.64s CPU      2.21s WALL (       1 calls)
     potinit      :      0.08s CPU      0.23s WALL (       1 calls)
     hinit0       :      0.42s CPU      0.42s WALL (       1 calls)

     Called by electrons:
     c_bands      :     35.23s CPU     35.34s WALL (      11 calls)
     sum_band     :     10.09s CPU     10.59s WALL (      11 calls)
     v_of_rho     :      0.98s CPU      0.96s WALL (      12 calls)
     newd         :      2.64s CPU      3.58s WALL (      12 calls)
     mix_rho      :      0.17s CPU      0.18s WALL (      11 calls)

     Called by c_bands:
     init_us_2    :      1.62s CPU      1.66s WALL (     299 calls)
     cegterg      :     30.69s CPU     30.51s WALL (     143 calls)

     Called by *egterg:
     cdiaghg      :      0.16s CPU      0.13s WALL (     513 calls)
     h_psi        :     27.38s CPU     28.69s WALL (     526 calls)
     s_psi        :      1.19s CPU      0.89s WALL (     526 calls)
     g_psi        :      0.24s CPU      0.20s WALL (     370 calls)

     Called by h_psi:
     h_psi:calbec :      1.32s CPU      1.96s WALL (     526 calls)
     vloc_psi     :     24.68s CPU     25.73s WALL (     526 calls)
     add_vuspsi   :      1.26s CPU      0.87s WALL (     526 calls)

     General routines
     calbec       :      1.74s CPU      2.34s WALL (     669 calls)
     fft          :      0.43s CPU      0.44s WALL (     132 calls)
     ffts         :      0.05s CPU      0.06s WALL (      11 calls)
     fftw         :     25.76s CPU     26.41s WALL (    8926 calls)

     Parallel routines

     PWSCF        :     51.54s CPU     56.10s WALL


   This run was terminated on:  11:46:12  13Nov2025            

=------------------------------------------------------------------------------=
   JOB DONE.
=------------------------------------------------------------------------------=

=== STDERR ===
